LAMMPS (29 Sep 2021 - Update 2)
OMP_NUM_THREADS environment is not set. Defaulting to 1 thread. (src/comm.cpp:98)
  using 1 OpenMP thread(s) per MPI task
Reading data file ...
  triclinic box = (0.0000000 0.0000000 0.0000000) to (22.326000 11.141200 13.778966) with tilt (0.0000000 -5.0260300 0.0000000)
  8 by 8 by 8 MPI processor grid
  reading atoms ...
  304 atoms
  reading velocities ...
  304 velocities
  read_data CPU = 0.021 seconds
Replicating atoms ...
  triclinic box = (0.0000000 0.0000000 0.0000000) to (1518.1680 222.82400 248.02139) with tilt (0.0000000 -90.468540 0.0000000)
  32 by 4 by 4 MPI processor grid
  bounding box image = (0 -1 -1) to (0 1 1)
  bounding box extra memory = 0.03 MB
  average # of replicas added to proc = 158.31 out of 24480 (0.65%)
  7441920 atoms
  replicate CPU = 0.025 seconds
Neighbor list info ...
  update every 20 steps, delay 0 steps, check no
  max neighbors/atom: 2000, page size: 100000
  master list distance cutoff = 11
  ghost atom cutoff = 11
  binsize = 5.5, bins = 293 41 46
  2 neighbor lists, perpetual/occasional/extra = 2 0 0
  (1) pair reax/c, perpetual
      attributes: half, newton off, ghost
      pair build: half/bin/newtoff/ghost
      stencil: full/ghost/bin/3d
      bin: standard
  (2) fix qeq/reax, perpetual, copy from (1)
      attributes: half, newton off, ghost
      pair build: copy
      stencil: none
      bin: none
Setting up Verlet run ...
  Unit style    : real
  Current step  : 0
  Time step     : 0.1
Per MPI rank memory allocation (min/avg/max) = 692.7 | 697.6 | 701.9 Mbytes
Step Temp PotEng Press E_vdwl E_coul Volume 
       0          300   -113.27833    439.02005   -111.57687   -1.7014647     83901733 
      10    300.75218    -113.2804    808.90965   -111.57897   -1.7014346     83901733 
      20    302.39155   -113.28514    1708.0345   -111.58382   -1.7013218     83901733 
      30    302.54119   -113.28546    4310.3444   -111.58437   -1.7010907     83901733 
      40    300.58293   -113.27955    6449.8161   -111.57879   -1.7007618     83901733 
      50    297.40791   -113.27005    6530.7533   -111.56965   -1.7003945     83901733 
      60    294.77813   -113.26217    6213.2234   -111.56214   -1.7000233     83901733 
      70    294.76376   -113.26208    6861.9569   -111.56243   -1.6996455     83901733 
      80    297.88518   -113.27136    8285.3081    -111.5721   -1.6992665     83901733 
      90     301.7274   -113.28281    9423.3943   -111.58388   -1.6989292     83901733 
     100    302.55724   -113.28523    10419.431   -111.58654   -1.6986865     83901733 
Loop time of 148.691 on 512 procs for 100 steps with 7441920 atoms

Performance: 0.006 ns/day, 4130.305 hours/ns, 0.673 timesteps/s
96.9% CPU use with 512 MPI tasks x 1 OpenMP threads

MPI task timing breakdown:
Section |  min time  |  avg time  |  max time  |%varavg| %total
---------------------------------------------------------------
Pair    | 74.47      | 78.77      | 84.513     |  19.4 | 52.98
Neigh   | 1.0377     | 1.0743     | 1.1165     |   1.4 |  0.72
Comm    | 1.2254     | 5.8997     | 10.934     |  72.4 |  3.97
Output  | 0.057883   | 0.23251    | 0.32232    |  15.3 |  0.16
Modify  | 61.753     | 62.71      | 63.281     |   7.0 | 42.17
Other   |            | 0.004474   |            |       |  0.00

Nlocal:        14535.0 ave       14670 max       14410 min
Histogram: 42 58 30 86 92 13 34 79 56 22
Nghost:        26378.6 ave       26602 max       26142 min
Histogram: 19 27 38 44 124 79 73 67 15 26
Neighs:    4.34219e+06 ave 4.38321e+06 max 4.30658e+06 min
Histogram: 49 49 57 106 58 17 16 71 67 22

Total # of neighbors = 2.2232016e+09
Ave neighs/atom = 298.74032
Neighbor list builds = 5
Dangerous builds not checked
Total wall time: 0:02:33
