LAMMPS (29 Sep 2021 - Update 2)
OMP_NUM_THREADS environment is not set. Defaulting to 1 thread. (src/comm.cpp:98)
  using 1 OpenMP thread(s) per MPI task
Reading data file ...
  triclinic box = (0.0000000 0.0000000 0.0000000) to (22.326000 11.141200 13.778966) with tilt (0.0000000 -5.0260300 0.0000000)
  8 by 8 by 8 MPI processor grid
  reading atoms ...
  304 atoms
  reading velocities ...
  304 velocities
  read_data CPU = 0.023 seconds
Replicating atoms ...
  triclinic box = (0.0000000 0.0000000 0.0000000) to (1518.1680 144.83560 275.57932) with tilt (0.0000000 -100.52060 0.0000000)
  32 by 4 by 4 MPI processor grid
  bounding box image = (0 -1 -1) to (0 1 1)
  bounding box extra memory = 0.03 MB
  average # of replicas added to proc = 131.59 out of 17680 (0.74%)
  5374720 atoms
  replicate CPU = 0.024 seconds
Neighbor list info ...
  update every 20 steps, delay 0 steps, check no
  max neighbors/atom: 2000, page size: 100000
  master list distance cutoff = 11
  ghost atom cutoff = 11
  binsize = 5.5, bins = 295 27 51
  2 neighbor lists, perpetual/occasional/extra = 2 0 0
  (1) pair reax/c, perpetual
      attributes: half, newton off, ghost
      pair build: half/bin/newtoff/ghost
      stencil: full/ghost/bin/3d
      bin: standard
  (2) fix qeq/reax, perpetual, copy from (1)
      attributes: half, newton off, ghost
      pair build: copy
      stencil: none
      bin: none
Setting up Verlet run ...
  Unit style    : real
  Current step  : 0
  Time step     : 0.1
Per MPI rank memory allocation (min/avg/max) = 560.1 | 564.3 | 569.0 Mbytes
Step Temp PotEng Press E_vdwl E_coul Volume 
       0          300   -113.27833    439.01987   -111.57687   -1.7014647     60595696 
      10     300.7298   -113.28034    748.95407    -111.5789   -1.7014392     60595696 
      20    302.34569   -113.28501    1612.7395   -111.58368   -1.7013316     60595696 
      30    302.47187   -113.28525    4212.6238   -111.58415    -1.701106     60595696 
      40    300.52576   -113.27938    6336.2785    -111.5786   -1.7007815     60595696 
      50    297.36545   -113.26992    6446.7646    -111.5695   -1.7004164     60595696 
      60    294.71967   -113.26199     6175.779   -111.56195   -1.7000451     60595696 
      70    294.67278   -113.26181    6844.4254   -111.56214   -1.6996662     60595696 
      80    297.79493   -113.27109    8264.4278   -111.57181   -1.6992849     60595696 
      90    301.69139    -113.2827    9399.6995   -111.58376   -1.6989449     60595696 
     100    302.56917   -113.28526    10424.774   -111.58656   -1.6986986     60595696 
Loop time of 112.839 on 512 procs for 100 steps with 5374720 atoms

Performance: 0.008 ns/day, 3134.422 hours/ns, 0.886 timesteps/s
96.9% CPU use with 512 MPI tasks x 1 OpenMP threads

MPI task timing breakdown:
Section |  min time  |  avg time  |  max time  |%varavg| %total
---------------------------------------------------------------
Pair    | 55.157     | 59.03      | 63.576     |  19.1 | 52.31
Neigh   | 0.82802    | 0.8627     | 0.9081     |   1.6 |  0.76
Comm    | 0.66468    | 4.4367     | 8.6748     |  70.3 |  3.93
Output  | 0.10662    | 0.22879    | 0.33062    |   9.4 |  0.20
Modify  | 47.534     | 48.277     | 48.634     |   4.5 | 42.78
Other   |            | 0.00357    |            |       |  0.00

Nlocal:        10497.5 ave       10595 max       10392 min
Histogram: 18 42 61 65 76 49 41 57 72 31
Nghost:        22711.8 ave       22904 max       22528 min
Histogram: 23 29 39 81 113 77 42 66 28 14
Neighs:    3.21023e+06 ave 3.24277e+06 max 3.17985e+06 min
Histogram: 35 39 73 82 50 60 27 74 43 29

Total # of neighbors = 1.6436363e+09
Ave neighs/atom = 305.80873
Neighbor list builds = 5
Dangerous builds not checked
Total wall time: 0:01:56
