LAMMPS (29 Sep 2021 - Update 2)
OMP_NUM_THREADS environment is not set. Defaulting to 1 thread. (src/comm.cpp:98)
  using 1 OpenMP thread(s) per MPI task
Reading data file ...
  triclinic box = (0.0000000 0.0000000 0.0000000) to (22.326000 11.141200 13.778966) with tilt (0.0000000 -5.0260300 0.0000000)
  8 by 8 by 8 MPI processor grid
  reading atoms ...
  304 atoms
  reading velocities ...
  304 velocities
  read_data CPU = 0.023 seconds
Replicating atoms ...
  triclinic box = (0.0000000 0.0000000 0.0000000) to (1495.8420 211.68280 165.34759) with tilt (0.0000000 -60.312360 0.0000000)
  32 by 4 by 4 MPI processor grid
  bounding box image = (0 -1 -1) to (0 1 1)
  bounding box extra memory = 0.03 MB
  average # of replicas added to proc = 119.22 out of 15276 (0.78%)
  4643904 atoms
  replicate CPU = 0.023 seconds
Neighbor list info ...
  update every 20 steps, delay 0 steps, check no
  max neighbors/atom: 2000, page size: 100000
  master list distance cutoff = 11
  ghost atom cutoff = 11
  binsize = 5.5, bins = 283 39 31
  2 neighbor lists, perpetual/occasional/extra = 2 0 0
  (1) pair reax/c, perpetual
      attributes: half, newton off, ghost
      pair build: half/bin/newtoff/ghost
      stencil: full/ghost/bin/3d
      bin: standard
  (2) fix qeq/reax, perpetual, copy from (1)
      attributes: half, newton off, ghost
      pair build: copy
      stencil: none
      bin: none
Setting up Verlet run ...
  Unit style    : real
  Current step  : 0
  Time step     : 0.1
Per MPI rank memory allocation (min/avg/max) = 490.8 | 496.0 | 500.9 Mbytes
Step Temp PotEng Press E_vdwl E_coul Volume 
       0          300   -113.27833    439.01976   -111.57687   -1.7014647     52356327 
      10    300.72225   -113.28031     775.1531   -111.57888     -1.70143     52356327 
      20     302.3606   -113.28505    1637.5402   -111.58373   -1.7013142     52356327 
      30    302.51919   -113.28539    4260.1623   -111.58431   -1.7010826     52356327 
      40    300.59214   -113.27958    6361.2051   -111.57882    -1.700755     52356327 
      50    297.39352      -113.27    6462.7415   -111.56961   -1.7003899     52356327 
      60    294.70296   -113.26193    6202.3408   -111.56191   -1.7000215     52356327 
      70    294.64243   -113.26171    6909.8502   -111.56206   -1.6996471     52356327 
      80       297.77   -113.27101    8357.8207   -111.57174   -1.6992711     52356327 
      90    301.66526   -113.28262    9488.5875   -111.58369   -1.6989368     52356327 
     100     302.5541   -113.28522    10461.467   -111.58652   -1.6986974     52356327 
Loop time of 99.1678 on 512 procs for 100 steps with 4643904 atoms

Performance: 0.009 ns/day, 2754.662 hours/ns, 1.008 timesteps/s
96.8% CPU use with 512 MPI tasks x 1 OpenMP threads

MPI task timing breakdown:
Section |  min time  |  avg time  |  max time  |%varavg| %total
---------------------------------------------------------------
Pair    | 48.036     | 51.261     | 55.552     |  20.1 | 51.69
Neigh   | 0.71752    | 0.74125    | 0.78855    |   1.3 |  0.75
Comm    | 0.78951    | 4.4618     | 8.0924     |  68.4 |  4.50
Output  | 0.12216    | 0.22713    | 0.30124    |  10.2 |  0.23
Modify  | 41.754     | 42.473     | 42.889     |   4.4 | 42.83
Other   |            | 0.002934   |            |       |  0.00

Nlocal:        9070.12 ave        9182 max        8954 min
Histogram: 26 43 48 69 54 57 80 66 57 12
Nghost:        20349.4 ave       20650 max       20063 min
Histogram: 24 33 47 52 117 96 55 37 38 13
Neighs:    2.78296e+06 ave  2.8187e+06 max 2.74729e+06 min
Histogram: 35 41 48 60 51 82 73 58 50 14

Total # of neighbors = 1.4248745e+09
Ave neighs/atom = 306.82687
Neighbor list builds = 5
Dangerous builds not checked
Total wall time: 0:01:42
