LAMMPS (29 Sep 2021 - Update 2)
OMP_NUM_THREADS environment is not set. Defaulting to 1 thread. (src/comm.cpp:98)
  using 1 OpenMP thread(s) per MPI task
Reading data file ...
  triclinic box = (0.0000000 0.0000000 0.0000000) to (22.326000 11.141200 13.778966) with tilt (0.0000000 -5.0260300 0.0000000)
  8 by 8 by 8 MPI processor grid
  reading atoms ...
  304 atoms
  reading velocities ...
  304 velocities
  read_data CPU = 0.028 seconds
Replicating atoms ...
  triclinic box = (0.0000000 0.0000000 0.0000000) to (1585.1460 189.40040 151.56863) with tilt (0.0000000 -55.286330 0.0000000)
  32 by 4 by 4 MPI processor grid
  bounding box image = (0 -1 -1) to (0 1 1)
  bounding box extra memory = 0.03 MB
  average # of replicas added to proc = 133.96 out of 13277 (1.01%)
  4036208 atoms
  replicate CPU = 0.024 seconds
Neighbor list info ...
  update every 20 steps, delay 0 steps, check no
  max neighbors/atom: 2000, page size: 100000
  master list distance cutoff = 11
  ghost atom cutoff = 11
  binsize = 5.5, bins = 299 35 28
  2 neighbor lists, perpetual/occasional/extra = 2 0 0
  (1) pair reax/c, perpetual
      attributes: half, newton off, ghost
      pair build: half/bin/newtoff/ghost
      stencil: full/ghost/bin/3d
      bin: standard
  (2) fix qeq/reax, perpetual, copy from (1)
      attributes: half, newton off, ghost
      pair build: copy
      stencil: none
      bin: none
Setting up Verlet run ...
  Unit style    : real
  Current step  : 0
  Time step     : 0.1
Per MPI rank memory allocation (min/avg/max) = 448.2 | 453.0 | 459.0 Mbytes
Step Temp PotEng Press E_vdwl E_coul Volume 
       0          300   -113.27833    439.01963   -111.57687   -1.7014647     45505037 
      10    300.70124   -113.28025    805.79472   -111.57881   -1.7014368     45505037 
      20    302.31279   -113.28491    1670.7514   -111.58358   -1.7013261     45505037 
      30    302.47735   -113.28527     4250.459   -111.58418   -1.7010956     45505037 
      40    300.57428   -113.27953    6377.4461   -111.57876   -1.7007651     45505037 
      50    297.44036   -113.27015    6467.7145   -111.56975   -1.7003951     45505037 
      60    294.78888   -113.26219    6165.9945   -111.56217   -1.7000215     45505037 
      70    294.72094   -113.26195    6843.6051    -111.5623    -1.699643     45505037 
      80    297.83963   -113.27122    8276.4512   -111.57196   -1.6992645     45505037 
      90    301.73316   -113.28283    9432.9256    -111.5839   -1.6989283     45505037 
     100    302.60283   -113.28537    10419.796   -111.58668   -1.6986867     45505037 
Loop time of 85.8321 on 512 procs for 100 steps with 4036208 atoms

Performance: 0.010 ns/day, 2384.224 hours/ns, 1.165 timesteps/s
96.9% CPU use with 512 MPI tasks x 1 OpenMP threads

MPI task timing breakdown:
Section |  min time  |  avg time  |  max time  |%varavg| %total
---------------------------------------------------------------
Pair    | 41.83      | 45.235     | 48.506     |  17.2 | 52.70
Neigh   | 0.65525    | 0.68085    | 0.72179    |   1.5 |  0.79
Comm    | 0.6447     | 3.4875     | 6.8297     |  61.4 |  4.06
Output  | 0.063596   | 0.11582    | 0.22738    |   8.0 |  0.13
Modify  | 35.75      | 36.31      | 36.666     |   4.0 | 42.30
Other   |            | 0.002518   |            |       |  0.00

Nlocal:        7883.22 ave        7997 max        7704 min
Histogram: 3 7 27 48 70 70 96 95 60 36
Nghost:        19025.2 ave       19330 max       18779 min
Histogram: 13 40 64 98 102 95 47 30 17 6
Neighs:    2.43788e+06 ave 2.47338e+06 max 2.38517e+06 min
Histogram: 3 9 29 48 75 76 106 82 57 27

Total # of neighbors = 1.2481932e+09
Ave neighs/atom = 309.24897
Neighbor list builds = 5
Dangerous builds not checked
Total wall time: 0:01:28
