LAMMPS (29 Sep 2021 - Update 2)
OMP_NUM_THREADS environment is not set. Defaulting to 1 thread. (src/comm.cpp:98)
  using 1 OpenMP thread(s) per MPI task
Reading data file ...
  triclinic box = (0.0000000 0.0000000 0.0000000) to (22.326000 11.141200 13.778966) with tilt (0.0000000 -5.0260300 0.0000000)
  8 by 8 by 8 MPI processor grid
  reading atoms ...
  304 atoms
  reading velocities ...
  304 velocities
  read_data CPU = 0.024 seconds
Replicating atoms ...
  triclinic box = (0.0000000 0.0000000 0.0000000) to (1272.5820 233.96520 303.13725) with tilt (0.0000000 -110.57266 0.0000000)
  16 by 4 by 8 MPI processor grid
  bounding box image = (0 -1 -1) to (0 1 1)
  bounding box extra memory = 0.03 MB
  average # of replicas added to proc = 210.18 out of 26334 (0.80%)
  8005536 atoms
  replicate CPU = 0.026 seconds
Neighbor list info ...
  update every 20 steps, delay 0 steps, check no
  max neighbors/atom: 2000, page size: 100000
  master list distance cutoff = 11
  ghost atom cutoff = 11
  binsize = 5.5, bins = 252 43 56
  2 neighbor lists, perpetual/occasional/extra = 2 0 0
  (1) pair reax/c, perpetual
      attributes: half, newton off, ghost
      pair build: half/bin/newtoff/ghost
      stencil: full/ghost/bin/3d
      bin: standard
  (2) fix qeq/reax, perpetual, copy from (1)
      attributes: half, newton off, ghost
      pair build: copy
      stencil: none
      bin: none
Setting up Verlet run ...
  Unit style    : real
  Current step  : 0
  Time step     : 0.1
Per MPI rank memory allocation (min/avg/max) = 745.6 | 751.7 | 757.8 Mbytes
Step Temp PotEng Press E_vdwl E_coul Volume 
       0          300   -113.27833    439.02006   -111.57687   -1.7014647     90256056 
      10    300.72541   -113.28032    756.34475   -111.57888   -1.7014383     90256056 
      20    302.34745   -113.28501    1581.4479   -111.58368   -1.7013293     90256056 
      30    302.48906   -113.28531    4158.2488   -111.58421   -1.7011011     90256056 
      40    300.56862   -113.27951    6278.3817   -111.57874   -1.7007731     90256056 
      50    297.42518   -113.27011    6392.9272    -111.5697   -1.7004049     90256056 
      60    294.76843   -113.26214     6166.038   -111.56211   -1.7000323     90256056 
      70    294.69922   -113.26189    6868.9679   -111.56223    -1.699654     90256056 
      80    297.80122   -113.27111    8282.6927   -111.57184   -1.6992746     90256056 
      90    301.67477   -113.28265    9419.2616   -111.58371    -1.698936     90256056 
     100    302.55648   -113.28523    10404.018   -111.58654   -1.6986899     90256056 
Loop time of 157.192 on 512 procs for 100 steps with 8005536 atoms

Performance: 0.005 ns/day, 4366.438 hours/ns, 0.636 timesteps/s
96.9% CPU use with 512 MPI tasks x 1 OpenMP threads

MPI task timing breakdown:
Section |  min time  |  avg time  |  max time  |%varavg| %total
---------------------------------------------------------------
Pair    | 80.24      | 84.685     | 90.027     |  19.1 | 53.87
Neigh   | 1.1192     | 1.1652     | 1.232      |   1.8 |  0.74
Comm    | 1.2519     | 6.0064     | 10.401     |  70.3 |  3.82
Output  | 0.067205   | 0.24961    | 0.41886    |  18.2 |  0.16
Modify  | 64.591     | 65.082     | 65.517     |   2.8 | 41.40
Other   |            | 0.003928   |            |       |  0.00

Nlocal:        15635.8 ave       15795 max       15459 min
Histogram: 13 25 31 64 84 88 95 81 25 6
Nghost:        28432.6 ave       28755 max       28105 min
Histogram: 10 23 54 77 88 91 76 54 33 6
Neighs:    4.67550e+06 ave 4.72435e+06 max 4.62229e+06 min
Histogram: 11 21 35 73 82 98 87 77 23 5

Total # of neighbors = 2.393855e+09
Ave neighs/atom = 299.02495
Neighbor list builds = 5
Dangerous builds not checked
Total wall time: 0:02:41
