LAMMPS (29 Sep 2021 - Update 2)
OMP_NUM_THREADS environment is not set. Defaulting to 1 thread. (src/comm.cpp:98)
  using 1 OpenMP thread(s) per MPI task
Reading data file ...
  triclinic box = (0.0000000 0.0000000 0.0000000) to (22.326000 11.141200 13.778966) with tilt (0.0000000 -5.0260300 0.0000000)
  8 by 8 by 8 MPI processor grid
  reading atoms ...
  304 atoms
  reading velocities ...
  304 velocities
  read_data CPU = 0.028 seconds
Replicating atoms ...
  triclinic box = (0.0000000 0.0000000 0.0000000) to (1428.8640 155.97680 316.91622) with tilt (0.0000000 -115.59869 0.0000000)
  32 by 2 by 8 MPI processor grid
  bounding box image = (0 -1 -1) to (0 1 1)
  bounding box extra memory = 0.03 MB
  average # of replicas added to proc = 113.22 out of 20608 (0.55%)
  6264832 atoms
  replicate CPU = 0.024 seconds
Neighbor list info ...
  update every 20 steps, delay 0 steps, check no
  max neighbors/atom: 2000, page size: 100000
  master list distance cutoff = 11
  ghost atom cutoff = 11
  binsize = 5.5, bins = 281 29 58
  2 neighbor lists, perpetual/occasional/extra = 2 0 0
  (1) pair reax/c, perpetual
      attributes: half, newton off, ghost
      pair build: half/bin/newtoff/ghost
      stencil: full/ghost/bin/3d
      bin: standard
  (2) fix qeq/reax, perpetual, copy from (1)
      attributes: half, newton off, ghost
      pair build: copy
      stencil: none
      bin: none
Setting up Verlet run ...
  Unit style    : real
  Current step  : 0
  Time step     : 0.1
Per MPI rank memory allocation (min/avg/max) = 629.3 | 631.7 | 633.5 Mbytes
Step Temp PotEng Press E_vdwl E_coul Volume 
       0          300   -113.27833    439.01995   -111.57687   -1.7014647     70631002 
      10    300.80156   -113.28055    835.43814   -111.57912   -1.7014333     70631002 
      20    302.43916   -113.28529     1731.572   -111.58397   -1.7013197     70631002 
      30    302.56111   -113.28552    4303.7062   -111.58443   -1.7010875     70631002 
      40     300.5796   -113.27954    6419.3934   -111.57879   -1.7007565     70631002 
      50    297.36378   -113.26992    6512.9065   -111.56953   -1.7003866     70631002 
      60    294.67517   -113.26185    6194.3099   -111.56184   -1.7000138     70631002 
      70    294.60202    -113.2616    6845.3668   -111.56196   -1.6996361     70631002 
      80    297.72887    -113.2709    8252.9714   -111.57164   -1.6992579     70631002 
      90      301.635   -113.28253    9373.6838   -111.58361   -1.6989212     70631002 
     100     302.5247   -113.28513    10370.144   -111.58645   -1.6986784     70631002 
Loop time of 127.321 on 512 procs for 100 steps with 6264832 atoms

Performance: 0.007 ns/day, 3536.690 hours/ns, 0.785 timesteps/s
96.9% CPU use with 512 MPI tasks x 1 OpenMP threads

MPI task timing breakdown:
Section |  min time  |  avg time  |  max time  |%varavg| %total
---------------------------------------------------------------
Pair    | 63.26      | 67.634     | 73.107     |  18.8 | 53.12
Neigh   | 0.92321    | 0.95784    | 1.0081     |   1.6 |  0.75
Comm    | 0.71686    | 5.2019     | 10.479     |  69.5 |  4.09
Output  | 0.08037    | 0.2642     | 0.41456    |  15.3 |  0.21
Modify  | 52.396     | 53.259     | 53.815     |   6.6 | 41.83
Other   |            | 0.003349   |            |       |  0.00

Nlocal:        12236.0 ave       12300 max       12161 min
Histogram: 49 15 46 67 15 61 118 72 13 56
Nghost:        24910.0 ave       25042 max       24772 min
Histogram: 35 29 19 52 92 112 108 1 5 59
Neighs:    3.71524e+06 ave 3.73135e+06 max 3.69762e+06 min
Histogram: 44 56 34 44 24 62 107 67 25 49

Total # of neighbors = 1.9022038e+09
Ave neighs/atom = 303.63205
Neighbor list builds = 5
Dangerous builds not checked
Total wall time: 0:02:11
