LAMMPS (29 Sep 2021 - Update 2)
OMP_NUM_THREADS environment is not set. Defaulting to 1 thread. (src/comm.cpp:98)
  using 1 OpenMP thread(s) per MPI task
Reading data file ...
  triclinic box = (0.0000000 0.0000000 0.0000000) to (22.326000 11.141200 13.778966) with tilt (0.0000000 -5.0260300 0.0000000)
  8 by 8 by 8 MPI processor grid
  reading atoms ...
  304 atoms
  reading velocities ...
  304 velocities
  read_data CPU = 0.023 seconds
Replicating atoms ...
  triclinic box = (0.0000000 0.0000000 0.0000000) to (1428.8640 133.69440 179.12656) with tilt (0.0000000 -65.338390 0.0000000)
  32 by 4 by 4 MPI processor grid
  bounding box image = (0 -1 -1) to (0 1 1)
  bounding box extra memory = 0.03 MB
  average # of replicas added to proc = 63.98 out of 9984 (0.64%)
  3035136 atoms
  replicate CPU = 0.023 seconds
Neighbor list info ...
  update every 20 steps, delay 0 steps, check no
  max neighbors/atom: 2000, page size: 100000
  master list distance cutoff = 11
  ghost atom cutoff = 11
  binsize = 5.5, bins = 272 25 33
  2 neighbor lists, perpetual/occasional/extra = 2 0 0
  (1) pair reax/c, perpetual
      attributes: half, newton off, ghost
      pair build: half/bin/newtoff/ghost
      stencil: full/ghost/bin/3d
      bin: standard
  (2) fix qeq/reax, perpetual, copy from (1)
      attributes: half, newton off, ghost
      pair build: copy
      stencil: none
      bin: none
Setting up Verlet run ...
  Unit style    : real
  Current step  : 0
  Time step     : 0.1
Per MPI rank memory allocation (min/avg/max) = 373.6 | 374.2 | 375.1 Mbytes
Step Temp PotEng Press E_vdwl E_coul Volume 
       0          300   -113.27833    439.01932   -111.57687   -1.7014647     34218746 
      10     300.7749   -113.28047    755.67406   -111.57903   -1.7014357     34218746 
      20    302.38251   -113.28512     1622.831    -111.5838   -1.7013242     34218746 
      30     302.5153   -113.28539    4228.2919   -111.58429   -1.7010931     34218746 
      40    300.61401   -113.27965    6372.9469   -111.57889    -1.700761     34218746 
      50    297.49522   -113.27031    6462.2501   -111.56992   -1.7003878     34218746 
      60    294.79944   -113.26223    6182.8947   -111.56222   -1.7000094     34218746 
      70    294.63437   -113.26169    6860.0088   -111.56207   -1.6996246     34218746 
      80    297.65773   -113.27068    8316.8913   -111.57144   -1.6992384     34218746 
      90    301.57133   -113.28234    9456.9089   -111.58345   -1.6988934     34218746 
     100    302.53618   -113.28517    10430.602   -111.58653   -1.6986429     34218746 
Loop time of 69.1176 on 512 procs for 100 steps with 3035136 atoms

Performance: 0.013 ns/day, 1919.934 hours/ns, 1.447 timesteps/s
96.8% CPU use with 512 MPI tasks x 1 OpenMP threads

MPI task timing breakdown:
Section |  min time  |  avg time  |  max time  |%varavg| %total
---------------------------------------------------------------
Pair    | 32.455     | 35.021     | 38.298     |  18.2 | 50.67
Neigh   | 0.52181    | 0.54044    | 0.57284    |   1.4 |  0.78
Comm    | 0.79997    | 3.4745     | 6.2407     |  57.8 |  5.03
Output  | 0.12001    | 0.19576    | 0.26553    |   7.1 |  0.28
Modify  | 29.289     | 29.884     | 30.126     |   4.3 | 43.24
Other   |            | 0.002209   |            |       |  0.00

Nlocal:        5928.00 ave        5961 max        5905 min
Histogram: 22 122 96 35 82 26 7 48 65 9
Nghost:        16365.5 ave       16453 max       16308 min
Histogram: 43 126 92 48 69 6 0 21 76 31
Neighs:    1.86970e+06 ave 1.87996e+06 max 1.86261e+06 min
Histogram: 25 126 90 21 68 53 16 72 35 6

Total # of neighbors = 9.5728562e+08
Ave neighs/atom = 315.40123
Neighbor list builds = 5
Dangerous builds not checked
Total wall time: 0:01:11
