LAMMPS (29 Sep 2021 - Update 2)
OMP_NUM_THREADS environment is not set. Defaulting to 1 thread. (src/comm.cpp:98)
  using 1 OpenMP thread(s) per MPI task
Reading data file ...
  triclinic box = (0.0000000 0.0000000 0.0000000) to (22.326000 11.141200 13.778966) with tilt (0.0000000 -5.0260300 0.0000000)
  8 by 8 by 8 MPI processor grid
  reading atoms ...
  304 atoms
  reading velocities ...
  304 velocities
  read_data CPU = 0.020 seconds
Replicating atoms ...
  triclinic box = (0.0000000 0.0000000 0.0000000) to (1562.8200 178.25920 165.34759) with tilt (0.0000000 -60.312360 0.0000000)
  32 by 4 by 4 MPI processor grid
  bounding box image = (0 -1 -1) to (0 1 1)
  bounding box extra memory = 0.03 MB
  average # of replicas added to proc = 98.34 out of 13440 (0.73%)
  4085760 atoms
  replicate CPU = 0.023 seconds
Neighbor list info ...
  update every 20 steps, delay 0 steps, check no
  max neighbors/atom: 2000, page size: 100000
  master list distance cutoff = 11
  ghost atom cutoff = 11
  binsize = 5.5, bins = 296 33 31
  2 neighbor lists, perpetual/occasional/extra = 2 0 0
  (1) pair reax/c, perpetual
      attributes: half, newton off, ghost
      pair build: half/bin/newtoff/ghost
      stencil: full/ghost/bin/3d
      bin: standard
  (2) fix qeq/reax, perpetual, copy from (1)
      attributes: half, newton off, ghost
      pair build: copy
      stencil: none
      bin: none
Setting up Verlet run ...
  Unit style    : real
  Current step  : 0
  Time step     : 0.1
Per MPI rank memory allocation (min/avg/max) = 448.6 | 452.5 | 455.8 Mbytes
Step Temp PotEng Press E_vdwl E_coul Volume 
       0          300   -113.27833    439.01964   -111.57687   -1.7014647     46063697 
      10    300.73336   -113.28034    840.44355   -111.57891   -1.7014371     46063697 
      20    302.36321   -113.28506    1721.6512   -111.58373   -1.7013279     46063697 
      30    302.54413   -113.28547    4300.0478   -111.58437   -1.7011014     46063697 
      40    300.65206   -113.27976    6426.0277   -111.57898   -1.7007771     46063697 
      50    297.48218   -113.27027    6529.9658   -111.56985   -1.7004139     46063697 
      60    294.76592   -113.26212    6201.8734   -111.56208   -1.7000458     46063697 
      70    294.64956   -113.26173    6794.9153   -111.56206   -1.6996694     46063697 
      80    297.73953   -113.27092    8184.5821   -111.57163   -1.6992891     46063697 
      90    301.63169   -113.28252    9347.6362   -111.58357   -1.6989482     46063697 
     100     302.5332   -113.28515     10347.94   -111.58645   -1.6987006     46063697 
Loop time of 89.2218 on 512 procs for 100 steps with 4085760 atoms

Performance: 0.010 ns/day, 2478.383 hours/ns, 1.121 timesteps/s
96.8% CPU use with 512 MPI tasks x 1 OpenMP threads

MPI task timing breakdown:
Section |  min time  |  avg time  |  max time  |%varavg| %total
---------------------------------------------------------------
Pair    | 41.749     | 45.605     | 49.755     |  20.9 | 51.11
Neigh   | 0.64671    | 0.66483    | 0.69481    |   1.1 |  0.75
Comm    | 0.72344    | 4.1566     | 8.0373     |  69.2 |  4.66
Output  | 0.089309   | 0.19338    | 0.27124    |   9.6 |  0.22
Modify  | 37.919     | 38.599     | 38.884     |   4.5 | 43.26
Other   |            | 0.002683   |            |       |  0.00

Nlocal:        7980.00 ave        8053 max        7868 min
Histogram: 32 48 48 0 5 97 36 81 68 97
Nghost:        18896.2 ave       19124 max       18715 min
Histogram: 28 45 126 81 55 40 22 51 8 56
Neighs:    2.46528e+06 ave 2.48867e+06 max 2.43177e+06 min
Histogram: 32 39 57 0 21 95 71 38 85 74

Total # of neighbors = 1.2622242e+09
Ave neighs/atom = 308.93254
Neighbor list builds = 5
Dangerous builds not checked
Total wall time: 0:01:32
