LAMMPS (29 Sep 2021 - Update 2)
OMP_NUM_THREADS environment is not set. Defaulting to 1 thread. (src/comm.cpp:98)
  using 1 OpenMP thread(s) per MPI task
Reading data file ...
  triclinic box = (0.0000000 0.0000000 0.0000000) to (22.326000 11.141200 13.778966) with tilt (0.0000000 -5.0260300 0.0000000)
  9 by 4 by 4 MPI processor grid
  reading atoms ...
  304 atoms
  reading velocities ...
  304 velocities
  read_data CPU = 0.014 seconds
Replicating atoms ...
  triclinic box = (0.0000000 0.0000000 0.0000000) to (1428.8640 178.25920 220.46346) with tilt (0.0000000 -80.416480 0.0000000)
  16 by 3 by 3 MPI processor grid
  bounding box image = (0 -1 -1) to (0 1 1)
  bounding box extra memory = 0.03 MB
  average # of replicas added to proc = 279.69 out of 16384 (1.71%)
  4980736 atoms
  replicate CPU = 0.011 seconds
Neighbor list info ...
  update every 20 steps, delay 0 steps, check no
  max neighbors/atom: 2000, page size: 100000
  master list distance cutoff = 11
  ghost atom cutoff = 11
  binsize = 5.5, bins = 275 33 41
  2 neighbor lists, perpetual/occasional/extra = 2 0 0
  (1) pair reax/c, perpetual
      attributes: half, newton off, ghost
      pair build: half/bin/newtoff/ghost
      stencil: full/ghost/bin/3d
      bin: standard
  (2) fix qeq/reax, perpetual, copy from (1)
      attributes: half, newton off, ghost
      pair build: copy
      stencil: none
      bin: none
Setting up Verlet run ...
  Unit style    : real
  Current step  : 0
  Time step     : 0.1
Per MPI rank memory allocation (min/avg/max) = 1339.0 | 1345.0 | 1350.0 Mbytes
Step Temp PotEng Press E_vdwl E_coul Volume 
       0          300   -113.27833    439.01979   -111.57687   -1.7014647     56153840 
      10    300.78686   -113.28051    827.36847   -111.57907   -1.7014353     56153840 
      20    302.44845   -113.28532     1713.148   -111.58399   -1.7013238     56153840 
      30    302.57358   -113.28556     4309.436   -111.58447    -1.701095     56153840 
      40    300.60957   -113.27964    6382.2142   -111.57887   -1.7007686     56153840 
      50    297.41259   -113.27006    6487.7591   -111.56966   -1.7004036     56153840 
      60    294.73455   -113.26203    6222.9991     -111.562   -1.7000354     56153840 
      70    294.66562   -113.26178    6861.7062   -111.56212   -1.6996621     56153840 
      80    297.77719   -113.27104    8252.9914   -111.57175   -1.6992888     56153840 
      90     301.6809   -113.28267    9374.9885   -111.58372   -1.6989574     56153840 
     100    302.58671   -113.28532    10369.064    -111.5866   -1.6987204     56153840 
Loop time of 293.88 on 144 procs for 100 steps with 4980736 atoms

Performance: 0.003 ns/day, 8163.323 hours/ns, 0.340 timesteps/s
100.0% CPU use with 144 MPI tasks x 1 OpenMP threads

MPI task timing breakdown:
Section |  min time  |  avg time  |  max time  |%varavg| %total
---------------------------------------------------------------
Pair    | 183.99     | 193.18     | 204.02     |  31.7 | 65.74
Neigh   | 2.9323     | 2.9604     | 3.3176     |   1.8 |  1.01
Comm    | 0.52483    | 10.02      | 20.539     | 146.9 |  3.41
Output  | 0.018923   | 0.17686    | 0.31779    |  25.2 |  0.06
Modify  | 86.303     | 87.512     | 89.101     |  13.8 | 29.78
Other   |            | 0.0285     |            |       |  0.01

Nlocal:        34588.4 ave       34771 max       34451 min
Histogram: 32 8 13 11 10 36 18 0 0 16
Nghost:        42837.1 ave       43225 max       42365 min
Histogram: 23 25 0 0 0 2 45 1 16 32
Neighs:    9.89820e+06 ave 9.94485e+06 max 9.85927e+06 min
Histogram: 30 2 16 14 15 22 23 6 0 16

Total # of neighbors = 1.4253405e+09
Ave neighs/atom = 286.17066
Neighbor list builds = 5
Dangerous builds not checked
Total wall time: 0:05:00
