LAMMPS (29 Sep 2021 - Update 2)
OMP_NUM_THREADS environment is not set. Defaulting to 1 thread. (src/comm.cpp:98)
  using 1 OpenMP thread(s) per MPI task
Reading data file ...
  triclinic box = (0.0000000 0.0000000 0.0000000) to (22.326000 11.141200 13.778966) with tilt (0.0000000 -5.0260300 0.0000000)
  8 by 8 by 8 MPI processor grid
  reading atoms ...
  304 atoms
  reading velocities ...
  304 velocities
  read_data CPU = 0.020 seconds
Replicating atoms ...
  triclinic box = (0.0000000 0.0000000 0.0000000) to (1294.9080 267.38880 220.46346) with tilt (0.0000000 -80.416480 0.0000000)
  32 by 4 by 4 MPI processor grid
  bounding box image = (0 -1 -1) to (0 1 1)
  bounding box extra memory = 0.03 MB
  average # of replicas added to proc = 143.41 out of 22272 (0.64%)
  6770688 atoms
  replicate CPU = 0.049 seconds
Neighbor list info ...
  update every 20 steps, delay 0 steps, check no
  max neighbors/atom: 2000, page size: 100000
  master list distance cutoff = 11
  ghost atom cutoff = 11
  binsize = 5.5, bins = 251 49 41
  2 neighbor lists, perpetual/occasional/extra = 2 0 0
  (1) pair reax/c, perpetual
      attributes: half, newton off, ghost
      pair build: half/bin/newtoff/ghost
      stencil: full/ghost/bin/3d
      bin: standard
  (2) fix qeq/reax, perpetual, copy from (1)
      attributes: half, newton off, ghost
      pair build: copy
      stencil: none
      bin: none
Setting up Verlet run ...
  Unit style    : real
  Current step  : 0
  Time step     : 0.1
Per MPI rank memory allocation (min/avg/max) = 651.6 | 658.1 | 664.6 Mbytes
Step Temp PotEng Press E_vdwl E_coul Volume 
       0          300   -113.27833    439.01997   -111.57687   -1.7014647     76334126 
      10    300.75292    -113.2804    784.63559   -111.57896   -1.7014409     76334126 
      20      302.378    -113.2851    1655.2977   -111.58377   -1.7013351     76334126 
      30    302.51326   -113.28538    4253.8296   -111.58427   -1.7011109     76334126 
      40    300.58532   -113.27956    6360.5206   -111.57878   -1.7007878     76334126 
      50    297.44693   -113.27017    6417.7413   -111.56974    -1.700425     76334126 
      60    294.79259   -113.26221    6123.2954   -111.56215   -1.7000567     76334126 
      70    294.71811   -113.26194    6777.5502   -111.56226   -1.6996804     76334126 
      80    297.81507   -113.27115    8204.7764   -111.57185   -1.6993005     76334126 
      90    301.69508   -113.28271    9377.7557   -111.58375   -1.6989592     76334126 
     100    302.58237    -113.2853    10379.267   -111.58659   -1.6987095     76334126 
Loop time of 138.529 on 512 procs for 100 steps with 6770688 atoms

Performance: 0.006 ns/day, 3848.031 hours/ns, 0.722 timesteps/s
96.8% CPU use with 512 MPI tasks x 1 OpenMP threads

MPI task timing breakdown:
Section |  min time  |  avg time  |  max time  |%varavg| %total
---------------------------------------------------------------
Pair    | 67.732     | 72.475     | 77.319     |  21.4 | 52.32
Neigh   | 0.96099    | 0.99797    | 1.0481     |   1.5 |  0.72
Comm    | 1.3421     | 6.1486     | 10.939     |  74.1 |  4.44
Output  | 0.085683   | 0.14555    | 0.2435     |   9.2 |  0.11
Modify  | 58.318     | 58.758     | 59.288     |   2.8 | 42.42
Other   |            | 0.003964   |            |       |  0.00

Nlocal:        13224.0 ave       13455 max       13083 min
Histogram: 110 56 89 33 96 0 0 78 18 32
Nghost:        25427.0 ave       25650 max       25056 min
Histogram: 50 15 30 1 32 38 62 155 68 61
Neighs:    3.98392e+06 ave 4.04647e+06 max 3.94387e+06 min
Histogram: 96 49 87 73 79 0 0 74 23 31

Total # of neighbors = 2.039766e+09
Ave neighs/atom = 301.26421
Neighbor list builds = 5
Dangerous builds not checked
Total wall time: 0:02:22
