LAMMPS (29 Sep 2021 - Update 2)
OMP_NUM_THREADS environment is not set. Defaulting to 1 thread. (src/comm.cpp:98)
  using 1 OpenMP thread(s) per MPI task
Reading data file ...
  triclinic box = (0.0000000 0.0000000 0.0000000) to (22.326000 11.141200 13.778966) with tilt (0.0000000 -5.0260300 0.0000000)
  8 by 8 by 8 MPI processor grid
  reading atoms ...
  304 atoms
  reading velocities ...
  304 velocities
  read_data CPU = 0.020 seconds
Replicating atoms ...
  triclinic box = (0.0000000 0.0000000 0.0000000) to (1294.9080 189.40040 206.68449) with tilt (0.0000000 -75.390450 0.0000000)
  32 by 4 by 4 MPI processor grid
  bounding box image = (0 -1 -1) to (0 1 1)
  bounding box extra memory = 0.03 MB
  average # of replicas added to proc = 135.09 out of 14790 (0.91%)
  4496160 atoms
  replicate CPU = 0.024 seconds
Neighbor list info ...
  update every 20 steps, delay 0 steps, check no
  max neighbors/atom: 2000, page size: 100000
  master list distance cutoff = 11
  ghost atom cutoff = 11
  binsize = 5.5, bins = 250 35 38
  2 neighbor lists, perpetual/occasional/extra = 2 0 0
  (1) pair reax/c, perpetual
      attributes: half, newton off, ghost
      pair build: half/bin/newtoff/ghost
      stencil: full/ghost/bin/3d
      bin: standard
  (2) fix qeq/reax, perpetual, copy from (1)
      attributes: half, newton off, ghost
      pair build: copy
      stencil: none
      bin: none
Setting up Verlet run ...
  Unit style    : real
  Current step  : 0
  Time step     : 0.1
Per MPI rank memory allocation (min/avg/max) = 481.2 | 487.9 | 494.0 Mbytes
Step Temp PotEng Press E_vdwl E_coul Volume 
       0          300   -113.27833    439.01969   -111.57687   -1.7014647     50690631 
      10    300.75886   -113.28042    718.09003   -111.57898   -1.7014402     50690631 
      20    302.39424   -113.28515    1563.0073   -111.58382   -1.7013337     50690631 
      30    302.52264   -113.28541    4159.7588    -111.5843   -1.7011092     50690631 
      40    300.58008   -113.27955    6261.1886   -111.57876   -1.7007858     50690631 
      50    297.42768    -113.2701    6367.2806   -111.56968   -1.7004219     50690631 
      60     294.7755   -113.26215    6174.1451    -111.5621    -1.700053     50690631 
      70    294.72754   -113.26197    6899.8838   -111.56229   -1.6996775     50690631 
      80    297.86402    -113.2713    8318.2159     -111.572   -1.6993004     50690631 
      90    301.75962   -113.28291    9457.1066   -111.58394   -1.6989631     50690631 
     100    302.64766    -113.2855    10409.603   -111.58678   -1.6987181     50690631 
Loop time of 94.6395 on 512 procs for 100 steps with 4496160 atoms

Performance: 0.009 ns/day, 2628.874 hours/ns, 1.057 timesteps/s
96.9% CPU use with 512 MPI tasks x 1 OpenMP threads

MPI task timing breakdown:
Section |  min time  |  avg time  |  max time  |%varavg| %total
---------------------------------------------------------------
Pair    | 47.038     | 49.929     | 52.841     |  15.6 | 52.76
Neigh   | 0.71318    | 0.74713    | 0.80165    |   1.8 |  0.79
Comm    | 0.8096     | 3.683      | 6.6336     |  58.2 |  3.89
Output  | 0.068148   | 0.13626    | 0.20283    |   9.0 |  0.14
Modify  | 39.848     | 40.141     | 40.596     |   3.1 | 42.41
Other   |            | 0.002932   |            |       |  0.00

Nlocal:        8781.56 ave        8955 max        8644 min
Histogram: 18 62 101 83 65 43 35 48 36 21
Nghost:        20179.3 ave       20421 max       19850 min
Histogram: 19 33 29 28 31 86 116 101 53 16
Neighs:    2.69910e+06 ave  2.7499e+06 max 2.65662e+06 min
Histogram: 13 42 93 92 93 38 33 66 24 18

Total # of neighbors = 1.3819394e+09
Ave neighs/atom = 307.35992
Neighbor list builds = 5
Dangerous builds not checked
Total wall time: 0:01:37
