LAMMPS (29 Sep 2021 - Update 2)
OMP_NUM_THREADS environment is not set. Defaulting to 1 thread. (src/comm.cpp:98)
  using 1 OpenMP thread(s) per MPI task
Reading data file ...
  triclinic box = (0.0000000 0.0000000 0.0000000) to (22.326000 11.141200 13.778966) with tilt (0.0000000 -5.0260300 0.0000000)
  8 by 8 by 8 MPI processor grid
  reading atoms ...
  304 atoms
  reading velocities ...
  304 velocities
  read_data CPU = 0.072 seconds
Replicating atoms ...
  triclinic box = (0.0000000 0.0000000 0.0000000) to (1227.9300 189.40040 289.35829) with tilt (0.0000000 -105.54663 0.0000000)
  16 by 4 by 8 MPI processor grid
  bounding box image = (0 -1 -1) to (0 1 1)
  bounding box extra memory = 0.03 MB
  average # of replicas added to proc = 178.98 out of 19635 (0.91%)
  5969040 atoms
  replicate CPU = 0.035 seconds
Neighbor list info ...
  update every 20 steps, delay 0 steps, check no
  max neighbors/atom: 2000, page size: 100000
  master list distance cutoff = 11
  ghost atom cutoff = 11
  binsize = 5.5, bins = 243 35 53
  2 neighbor lists, perpetual/occasional/extra = 2 0 0
  (1) pair reax/c, perpetual
      attributes: half, newton off, ghost
      pair build: half/bin/newtoff/ghost
      stencil: full/ghost/bin/3d
      bin: standard
  (2) fix qeq/reax, perpetual, copy from (1)
      attributes: half, newton off, ghost
      pair build: copy
      stencil: none
      bin: none
Setting up Verlet run ...
  Unit style    : real
  Current step  : 0
  Time step     : 0.1
Per MPI rank memory allocation (min/avg/max) = 604.5 | 610.4 | 617.7 Mbytes
Step Temp PotEng Press E_vdwl E_coul Volume 
       0          300   -113.27833     439.0199   -111.57687   -1.7014647     67296182 
      10    300.80558   -113.28056    827.83236   -111.57913   -1.7014293     67296182 
      20    302.46984   -113.28537    1711.5229   -111.58406    -1.701312     67296182 
      30    302.59159   -113.28561    4297.5875   -111.58453   -1.7010776     67296182 
      40    300.63036   -113.27969    6357.4131   -111.57895    -1.700746     67296182 
      50    297.45108   -113.27018    6432.2296    -111.5698   -1.7003761     67296182 
      60    294.80309   -113.26224    6130.8064   -111.56224   -1.7000031     67296182 
      70    294.76737   -113.26209    6766.6193   -111.56246   -1.6996258     67296182 
      80    297.87034   -113.27132    8216.3496   -111.57207   -1.6992495     67296182 
      90     301.7333   -113.28283    9378.2421   -111.58391   -1.6989167     67296182 
     100    302.58891   -113.28533    10409.409   -111.58665   -1.6986796     67296182 
Loop time of 122.503 on 512 procs for 100 steps with 5969040 atoms

Performance: 0.007 ns/day, 3402.864 hours/ns, 0.816 timesteps/s
96.9% CPU use with 512 MPI tasks x 1 OpenMP threads

MPI task timing breakdown:
Section |  min time  |  avg time  |  max time  |%varavg| %total
---------------------------------------------------------------
Pair    | 61.62      | 64.848     | 68.922     |  16.6 | 52.94
Neigh   | 0.89366    | 0.93108    | 0.98937    |   1.8 |  0.76
Comm    | 0.95329    | 4.777      | 8.1409     |  60.6 |  3.90
Output  | 0.14953    | 0.26683    | 0.40802    |  13.5 |  0.22
Modify  | 51.399     | 51.677     | 51.863     |   1.8 | 42.18
Other   |            | 0.003171   |            |       |  0.00

Nlocal:        11658.3 ave       11798 max       11519 min
Histogram: 4 20 50 87 101 96 84 38 21 11
Nghost:        24221.3 ave       24714 max       23786 min
Histogram: 12 44 87 79 44 68 91 68 16 3
Neighs:    3.54484e+06 ave 3.58858e+06 max 3.49842e+06 min
Histogram: 5 18 40 74 102 103 91 44 30 5

Total # of neighbors = 1.8149594e+09
Ave neighs/atom = 304.06219
Neighbor list builds = 5
Dangerous builds not checked
Total wall time: 0:02:07
