LAMMPS (29 Sep 2021 - Update 2)
OMP_NUM_THREADS environment is not set. Defaulting to 1 thread. (src/comm.cpp:98)
  using 1 OpenMP thread(s) per MPI task
Reading data file ...
  triclinic box = (0.0000000 0.0000000 0.0000000) to (22.326000 11.141200 13.778966) with tilt (0.0000000 -5.0260300 0.0000000)
  8 by 8 by 8 MPI processor grid
  reading atoms ...
  304 atoms
  reading velocities ...
  304 velocities
  read_data CPU = 0.022 seconds
Replicating atoms ...
  triclinic box = (0.0000000 0.0000000 0.0000000) to (1495.8420 167.11800 220.46346) with tilt (0.0000000 -80.416480 0.0000000)
  32 by 4 by 4 MPI processor grid
  bounding box image = (0 -1 -1) to (0 1 1)
  bounding box extra memory = 0.03 MB
  average # of replicas added to proc = 130.46 out of 16080 (0.81%)
  4888320 atoms
  replicate CPU = 0.024 seconds
Neighbor list info ...
  update every 20 steps, delay 0 steps, check no
  max neighbors/atom: 2000, page size: 100000
  master list distance cutoff = 11
  ghost atom cutoff = 11
  binsize = 5.5, bins = 287 31 41
  2 neighbor lists, perpetual/occasional/extra = 2 0 0
  (1) pair reax/c, perpetual
      attributes: half, newton off, ghost
      pair build: half/bin/newtoff/ghost
      stencil: full/ghost/bin/3d
      bin: standard
  (2) fix qeq/reax, perpetual, copy from (1)
      attributes: half, newton off, ghost
      pair build: copy
      stencil: none
      bin: none
Setting up Verlet run ...
  Unit style    : real
  Current step  : 0
  Time step     : 0.1
Per MPI rank memory allocation (min/avg/max) = 508.7 | 514.4 | 519.1 Mbytes
Step Temp PotEng Press E_vdwl E_coul Volume 
       0          300   -113.27833    439.01979   -111.57687   -1.7014647     55111923 
      10    300.76114   -113.28043    821.05834   -111.57898   -1.7014424     55111923 
      20    302.40491   -113.28519     1759.149   -111.58385   -1.7013371     55111923 
      30    302.56599   -113.28554    4407.7625   -111.58443   -1.7011123     55111923 
      40    300.64299   -113.27974     6494.027   -111.57895   -1.7007877     55111923 
      50    297.45142   -113.27018    6508.5018   -111.56976   -1.7004228     55111923 
      60    294.73163   -113.26203    6147.8955   -111.56197   -1.7000523     55111923 
      70    294.63245   -113.26168     6731.667   -111.56201   -1.6996746     55111923 
      80    297.75553   -113.27097    8146.0035   -111.57167    -1.699294     55111923 
      90    301.69934   -113.28272     9323.456   -111.58377   -1.6989539     55111923 
     100    302.61979   -113.28541    10351.277   -111.58671   -1.6987072     55111923 
Loop time of 103.554 on 512 procs for 100 steps with 4888320 atoms

Performance: 0.008 ns/day, 2876.499 hours/ns, 0.966 timesteps/s
96.8% CPU use with 512 MPI tasks x 1 OpenMP threads

MPI task timing breakdown:
Section |  min time  |  avg time  |  max time  |%varavg| %total
---------------------------------------------------------------
Pair    | 49.953     | 53.766     | 57.9       |  19.4 | 51.92
Neigh   | 0.74719    | 0.77013    | 0.80978    |   1.3 |  0.74
Comm    | 0.85295    | 4.3117     | 8.1524     |  68.9 |  4.16
Output  | 0.059612   | 0.15051    | 0.24238    |  11.8 |  0.15
Modify  | 43.915     | 44.553     | 45.068     |   4.3 | 43.02
Other   |            | 0.003256   |            |       |  0.00

Nlocal:        9547.50 ave        9661 max        9424 min
Histogram: 28 34 58 53 55 67 74 56 70 17
Nghost:        20960.4 ave       21285 max       20664 min
Histogram: 25 33 49 58 120 92 52 41 32 10
Neighs:    2.92071e+06 ave 2.95663e+06 max 2.88034e+06 min
Histogram: 26 32 51 49 62 79 74 60 57 22

Total # of neighbors = 1.4954031e+09
Ave neighs/atom = 305.91350
Neighbor list builds = 5
Dangerous builds not checked
Total wall time: 0:01:46
