LAMMPS (29 Sep 2021 - Update 2)
OMP_NUM_THREADS environment is not set. Defaulting to 1 thread. (src/comm.cpp:98)
  using 1 OpenMP thread(s) per MPI task
Reading data file ...
  triclinic box = (0.0000000 0.0000000 0.0000000) to (22.326000 11.141200 13.778966) with tilt (0.0000000 -5.0260300 0.0000000)
  8 by 8 by 8 MPI processor grid
  reading atoms ...
  304 atoms
  reading velocities ...
  304 velocities
  read_data CPU = 0.037 seconds
Replicating atoms ...
  triclinic box = (0.0000000 0.0000000 0.0000000) to (1473.5160 267.38880 206.68449) with tilt (0.0000000 -75.390450 0.0000000)
  32 by 4 by 4 MPI processor grid
  bounding box image = (0 -1 -1) to (0 1 1)
  bounding box extra memory = 0.03 MB
  average # of replicas added to proc = 168.54 out of 23760 (0.71%)
  7223040 atoms
  replicate CPU = 0.025 seconds
Neighbor list info ...
  update every 20 steps, delay 0 steps, check no
  max neighbors/atom: 2000, page size: 100000
  master list distance cutoff = 11
  ghost atom cutoff = 11
  binsize = 5.5, bins = 282 49 38
  2 neighbor lists, perpetual/occasional/extra = 2 0 0
  (1) pair reax/c, perpetual
      attributes: half, newton off, ghost
      pair build: half/bin/newtoff/ghost
      stencil: full/ghost/bin/3d
      bin: standard
  (2) fix qeq/reax, perpetual, copy from (1)
      attributes: half, newton off, ghost
      pair build: copy
      stencil: none
      bin: none
Setting up Verlet run ...
  Unit style    : real
  Current step  : 0
  Time step     : 0.1
Per MPI rank memory allocation (min/avg/max) = 681.0 | 687.4 | 693.2 Mbytes
Step Temp PotEng Press E_vdwl E_coul Volume 
       0          300   -113.27833    439.02002   -111.57687   -1.7014647     81434035 
      10     300.7803   -113.28048     749.6303   -111.57904   -1.7014411     81434035 
      20    302.43523   -113.28527     1589.421   -111.58394   -1.7013353     81434035 
      30    302.57117   -113.28555    4179.5384   -111.58444   -1.7011106     81434035 
      40    300.62286   -113.27967     6285.112   -111.57889   -1.7007858     81434035 
      50    297.44213   -113.27015    6402.4628   -111.56973   -1.7004196     81434035 
      60    294.77288   -113.26215    6156.8686    -111.5621   -1.7000482     81434035 
      70    294.69127   -113.26186    6872.3511   -111.56219   -1.6996697     81434035 
      80    297.77527   -113.27104    8335.2558   -111.57175   -1.6992889     81434035 
      90    301.64044   -113.28255    9510.5924    -111.5836    -1.698948     81434035 
     100    302.52756   -113.28514    10497.361   -111.58644   -1.6987002     81434035 
Loop time of 144.52 on 512 procs for 100 steps with 7223040 atoms

Performance: 0.006 ns/day, 4014.438 hours/ns, 0.692 timesteps/s
96.9% CPU use with 512 MPI tasks x 1 OpenMP threads

MPI task timing breakdown:
Section |  min time  |  avg time  |  max time  |%varavg| %total
---------------------------------------------------------------
Pair    | 72.353     | 76.764     | 81.633     |  19.1 | 53.12
Neigh   | 1.0229     | 1.0688     | 1.1275     |   1.8 |  0.74
Comm    | 0.86119    | 5.1736     | 9.9971     |  73.3 |  3.58
Output  | 0.064837   | 0.15892    | 0.2242     |  10.0 |  0.11
Modify  | 60.801     | 61.351     | 61.697     |   3.8 | 42.45
Other   |            | 0.00407    |            |       |  0.00

Nlocal:        14107.5 ave       14252 max       13908 min
Histogram: 8 24 35 37 67 64 117 87 46 27
Nghost:        26214.3 ave       26581 max       25895 min
Histogram: 24 24 47 118 130 75 23 7 17 47
Neighs:    4.22242e+06 ave 4.27136e+06 max 4.16594e+06 min
Histogram: 23 32 23 60 46 93 117 72 28 18

Total # of neighbors = 2.161877e+09
Ave neighs/atom = 299.30292
Neighbor list builds = 5
Dangerous builds not checked
Total wall time: 0:02:28
