LAMMPS (29 Sep 2021 - Update 2)
OMP_NUM_THREADS environment is not set. Defaulting to 1 thread. (src/comm.cpp:98)
  using 1 OpenMP thread(s) per MPI task
Reading data file ...
  triclinic box = (0.0000000 0.0000000 0.0000000) to (22.326000 11.141200 13.778966) with tilt (0.0000000 -5.0260300 0.0000000)
  8 by 8 by 8 MPI processor grid
  reading atoms ...
  304 atoms
  reading velocities ...
  304 velocities
  read_data CPU = 0.020 seconds
Replicating atoms ...
  triclinic box = (0.0000000 0.0000000 0.0000000) to (1451.1900 189.40040 316.91622) with tilt (0.0000000 -115.59869 0.0000000)
  32 by 4 by 4 MPI processor grid
  bounding box image = (0 -1 -1) to (0 1 1)
  bounding box extra memory = 0.03 MB
  average # of replicas added to proc = 191.50 out of 25415 (0.75%)
  7726160 atoms
  replicate CPU = 0.025 seconds
Neighbor list info ...
  update every 20 steps, delay 0 steps, check no
  max neighbors/atom: 2000, page size: 100000
  master list distance cutoff = 11
  ghost atom cutoff = 11
  binsize = 5.5, bins = 285 35 58
  2 neighbor lists, perpetual/occasional/extra = 2 0 0
  (1) pair reax/c, perpetual
      attributes: half, newton off, ghost
      pair build: half/bin/newtoff/ghost
      stencil: full/ghost/bin/3d
      bin: standard
  (2) fix qeq/reax, perpetual, copy from (1)
      attributes: half, newton off, ghost
      pair build: copy
      stencil: none
      bin: none
Setting up Verlet run ...
  Unit style    : real
  Current step  : 0
  Time step     : 0.1
Per MPI rank memory allocation (min/avg/max) = 722.1 | 729.9 | 737.7 Mbytes
Step Temp PotEng Press E_vdwl E_coul Volume 
       0          300   -113.27833    439.02008   -111.57687   -1.7014647     87106313 
      10    300.72165   -113.28031    769.83727   -111.57888   -1.7014309     87106313 
      20    302.34588   -113.28501    1662.1729   -111.58369    -1.701317     87106313 
      30    302.48635    -113.2853    4281.7987   -111.58421    -1.701089     87106313 
      40    300.54221   -113.27943    6381.0804   -111.57867   -1.7007663     87106313 
      50    297.37451   -113.26995    6420.6775   -111.56954   -1.7004062     87106313 
      60    294.71629   -113.26198    6128.6869   -111.56194   -1.7000413     87106313 
      70    294.68043   -113.26183    6812.7075   -111.56216   -1.6996688     87106313 
      80    297.82549   -113.27118    8246.5037   -111.57189   -1.6992929     87106313 
      90    301.73543   -113.28284    9411.4864   -111.58388   -1.6989556     87106313 
     100    302.62775   -113.28544     10441.46   -111.58673   -1.6987103     87106313 
Loop time of 152.621 on 512 procs for 100 steps with 7726160 atoms

Performance: 0.006 ns/day, 4239.460 hours/ns, 0.655 timesteps/s
96.9% CPU use with 512 MPI tasks x 1 OpenMP threads

MPI task timing breakdown:
Section |  min time  |  avg time  |  max time  |%varavg| %total
---------------------------------------------------------------
Pair    | 78.058     | 82.185     | 87.701     |  17.7 | 53.85
Neigh   | 1.0999     | 1.1521     | 1.2093     |   1.7 |  0.75
Comm    | 1.0932     | 5.6209     | 10.08      |  67.9 |  3.68
Output  | 0.065025   | 0.21447    | 0.33666    |  16.0 |  0.14
Modify  | 62.561     | 63.443     | 63.952     |   6.3 | 41.57
Other   |            | 0.005062   |            |       |  0.00

Nlocal:        15090.2 ave       15237 max       14926 min
Histogram: 6 19 45 65 81 102 92 70 25 7
Nghost:        27745.8 ave       28150 max       27355 min
Histogram: 10 40 85 89 47 47 60 84 42 8
Neighs:    4.51527e+06 ave 4.55636e+06 max 4.46153e+06 min
Histogram: 6 17 46 48 76 84 83 76 55 21

Total # of neighbors = 2.3118175e+09
Ave neighs/atom = 299.21947
Neighbor list builds = 5
Dangerous builds not checked
Total wall time: 0:02:37
