LAMMPS (29 Sep 2021 - Update 2)
OMP_NUM_THREADS environment is not set. Defaulting to 1 thread. (src/comm.cpp:98)
  using 1 OpenMP thread(s) per MPI task
Reading data file ...
  triclinic box = (0.0000000 0.0000000 0.0000000) to (22.326000 11.141200 13.778966) with tilt (0.0000000 -5.0260300 0.0000000)
  8 by 8 by 8 MPI processor grid
  reading atoms ...
  304 atoms
  reading velocities ...
  304 velocities
  read_data CPU = 0.025 seconds
Replicating atoms ...
  triclinic box = (0.0000000 0.0000000 0.0000000) to (1451.1900 122.55320 165.34759) with tilt (0.0000000 -60.312360 0.0000000)
  32 by 4 by 4 MPI processor grid
  bounding box image = (0 -1 -1) to (0 1 1)
  bounding box extra memory = 0.03 MB
  average # of replicas added to proc = 86.52 out of 8580 (1.01%)
  2608320 atoms
  replicate CPU = 0.023 seconds
Neighbor list info ...
  update every 20 steps, delay 0 steps, check no
  max neighbors/atom: 2000, page size: 100000
  master list distance cutoff = 11
  ghost atom cutoff = 11
  binsize = 5.5, bins = 275 23 31
  2 neighbor lists, perpetual/occasional/extra = 2 0 0
  (1) pair reax/c, perpetual
      attributes: half, newton off, ghost
      pair build: half/bin/newtoff/ghost
      stencil: full/ghost/bin/3d
      bin: standard
  (2) fix qeq/reax, perpetual, copy from (1)
      attributes: half, newton off, ghost
      pair build: copy
      stencil: none
      bin: none
Setting up Verlet run ...
  Unit style    : real
  Current step  : 0
  Time step     : 0.1
Per MPI rank memory allocation (min/avg/max) = 336.8 | 339.6 | 342.6 Mbytes
Step Temp PotEng Press E_vdwl E_coul Volume 
       0          300   -113.27833    439.01917   -111.57687   -1.7014647     29406735 
      10    300.74709   -113.28038    723.95378   -111.57895   -1.7014345     29406735 
      20    302.43605   -113.28527    1583.7626   -111.58395   -1.7013216     29406735 
      30     302.6545    -113.2858    4203.4513   -111.58471     -1.70109     29406735 
      40    300.73814   -113.28002    6338.4393   -111.57926   -1.7007603     29406735 
      50    297.52481   -113.27039    6418.8153      -111.57   -1.7003921     29406735 
      60    294.79575   -113.26221    6163.0262   -111.56219   -1.7000207     29406735 
      70    294.72861   -113.26197    6899.3267   -111.56232   -1.6996439     29406735 
      80    297.91821   -113.27146    8358.3408   -111.57219    -1.699267     29406735 
      90    301.85237   -113.28318    9535.9844   -111.58425   -1.6989322     29406735 
     100    302.70533   -113.28567     10502.36   -111.58698   -1.6986922     29406735 
Loop time of 60.9281 on 512 procs for 100 steps with 2608320 atoms

Performance: 0.014 ns/day, 1692.448 hours/ns, 1.641 timesteps/s
96.8% CPU use with 512 MPI tasks x 1 OpenMP threads

MPI task timing breakdown:
Section |  min time  |  avg time  |  max time  |%varavg| %total
---------------------------------------------------------------
Pair    | 28.364     | 30.801     | 33.625     |  17.7 | 50.55
Neigh   | 0.47157    | 0.48366    | 0.50762    |   1.0 |  0.79
Comm    | 0.94306    | 3.3041     | 5.819      |  54.0 |  5.42
Output  | 0.12192    | 0.22208    | 0.27013    |   7.7 |  0.36
Modify  | 25.707     | 26.115     | 26.389     |   4.0 | 42.86
Other   |            | 0.002134   |            |       |  0.00

Nlocal:        5094.38 ave        5138 max        5046 min
Histogram: 13 34 31 66 83 81 83 70 32 19
Nghost:        15160.0 ave       15325 max       14997 min
Histogram: 24 63 74 63 59 22 44 54 79 30
Neighs:    1.62476e+06 ave    1.64e+06 max 1.60866e+06 min
Histogram: 19 34 39 71 79 73 77 69 39 12

Total # of neighbors = 8.3187769e+08
Ave neighs/atom = 318.93237
Neighbor list builds = 5
Dangerous builds not checked
Total wall time: 0:01:03
