LAMMPS (29 Sep 2021 - Update 2)
OMP_NUM_THREADS environment is not set. Defaulting to 1 thread. (src/comm.cpp:98)
  using 1 OpenMP thread(s) per MPI task
Reading data file ...
  triclinic box = (0.0000000 0.0000000 0.0000000) to (22.326000 11.141200 13.778966) with tilt (0.0000000 -5.0260300 0.0000000)
  8 by 8 by 8 MPI processor grid
  reading atoms ...
  304 atoms
  reading velocities ...
  304 velocities
  read_data CPU = 0.019 seconds
Replicating atoms ...
  triclinic box = (0.0000000 0.0000000 0.0000000) to (1428.8640 178.25920 220.46346) with tilt (0.0000000 -80.416480 0.0000000)
  32 by 4 by 4 MPI processor grid
  bounding box image = (0 -1 -1) to (0 1 1)
  bounding box extra memory = 0.03 MB
  average # of replicas added to proc = 78.42 out of 16384 (0.48%)
  4980736 atoms
  replicate CPU = 0.023 seconds
Neighbor list info ...
  update every 20 steps, delay 0 steps, check no
  max neighbors/atom: 2000, page size: 100000
  master list distance cutoff = 11
  ghost atom cutoff = 11
  binsize = 5.5, bins = 275 33 41
  2 neighbor lists, perpetual/occasional/extra = 2 0 0
  (1) pair reax/c, perpetual
      attributes: half, newton off, ghost
      pair build: half/bin/newtoff/ghost
      stencil: full/ghost/bin/3d
      bin: standard
  (2) fix qeq/reax, perpetual, copy from (1)
      attributes: half, newton off, ghost
      pair build: copy
      stencil: none
      bin: none
Setting up Verlet run ...
  Unit style    : real
  Current step  : 0
  Time step     : 0.1
Per MPI rank memory allocation (min/avg/max) = 518.9 | 519.0 | 519.0 Mbytes
Step Temp PotEng Press E_vdwl E_coul Volume 
       0          300   -113.27833     439.0198   -111.57687   -1.7014647     56153840 
      10    300.83122   -113.28064    852.70698    -111.5792   -1.7014367     56153840 
      20    302.48407   -113.28541    1775.1565   -111.58409   -1.7013263     56153840 
      30    302.60707   -113.28566    4386.6537   -111.58456   -1.7010979     56153840 
      40    300.66025   -113.27978    6458.7358   -111.57901   -1.7007709     56153840 
      50    297.49146   -113.27029    6488.4736   -111.56989    -1.700404     56153840 
      60    294.81365   -113.26227    6161.2506   -111.56223   -1.7000321     56153840 
      70    294.72742   -113.26196    6798.4326   -111.56231   -1.6996533     56153840 
      80    297.81809   -113.27116    8214.5452   -111.57188   -1.6992721     56153840 
      90    301.68364   -113.28268      9339.07   -111.58374   -1.6989314     56153840 
     100     302.5564   -113.28522     10311.64   -111.58654   -1.6986844     56153840 
Loop time of 100.517 on 512 procs for 100 steps with 4980736 atoms

Performance: 0.009 ns/day, 2792.141 hours/ns, 0.995 timesteps/s
96.8% CPU use with 512 MPI tasks x 1 OpenMP threads

MPI task timing breakdown:
Section |  min time  |  avg time  |  max time  |%varavg| %total
---------------------------------------------------------------
Pair    | 50.709     | 54.384     | 58.423     |  19.8 | 54.10
Neigh   | 0.75447    | 0.77079    | 0.81717    |   1.1 |  0.77
Comm    | 0.81106    | 4.4829     | 8.4103     |  69.2 |  4.46
Output  | 0.094102   | 0.15467    | 0.21984    |   6.6 |  0.15
Modify  | 40.355     | 40.721     | 40.908     |   2.3 | 40.51
Other   |            | 0.00319    |            |       |  0.00

Nlocal:        9728.00 ave        9742 max        9714 min
Histogram: 6 21 39 90 90 112 78 52 19 5
Nghost:        21051.8 ave       21084 max       21021 min
Histogram: 7 10 36 106 104 122 84 29 8 6
Neighs:    2.97409e+06 ave 2.97856e+06 max 2.97023e+06 min
Histogram: 16 26 46 97 124 91 60 35 8 9

Total # of neighbors = 1.5227348e+09
Ave neighs/atom = 305.72486
Neighbor list builds = 5
Dangerous builds not checked
Total wall time: 0:01:43
